<?xml version="1.0" encoding="UTF-8"?>

<!-- generated on Fri Jul 30 10:36:10 2021 by Eclipse SUMO sumo Version v1_7_0+1095-7111e26d53
<configuration xmlns:xsi="http://www.w3.org/2001/XMLSchema-instance" xsi:noNamespaceSchemaLocation="http://sumo.dlr.de/xsd/sumoConfiguration.xsd">

    <input>
        <net-file value="/home/msa/Documents/SUMO/sumotlslab/examples/cross/sumo/networks/cross6_LFR_exits.net.xml"/>
        <route-files value="/home/msa/Documents/SUMO/sumotlslab/examples/cross/sumo/demands/vehicles.rou.xml,/home/msa/Documents/SUMO/sumotlslab/examples/cross/sumo/demands/pedestrians.rou.xml,/home/msa/Documents/SUMO/sumotlslab/examples/cross/sumo/demands/cyclists.rou.xml"/>
        <additional-files value="/home/msa/Documents/SUMO/sumotlslab/examples/cross/sumo/tll/cross_standart_wt.tll.xml"/>
    </input>

    <output>
        <tripinfo-output value="/home/msa/Documents/SUMO/sumotlslab/examples/cross/output/trip2.xml"/>
    </output>

    <emissions>
        <device.emissions.probability value="1"/>
    </emissions>

    <traci_server>
        <remote-port value="39079"/>
    </traci_server>

    <gui_only>
        <gui-settings-file value="sumo_gui_config.xml"/>
    </gui_only>

</configuration>
-->

<tripinfos xmlns:xsi="http://www.w3.org/2001/XMLSchema-instance" xsi:noNamespaceSchemaLocation="http://sumo.dlr.de/xsd/tripinfo_file.xsd">
    <personinfo id="1" depart="5.00" type="DEFAULT_PEDTYPE">
        <walk depart="5.00" departPos="0.00" arrival="30.00" arrivalPos="26.20" duration="25.00" routeLength="26.20" timeLoss="2.30" maxSpeed="1.15"/>
    </personinfo>
    <tripinfo id="0" depart="0.00" departLane="NN_2" departPos="5.10" departSpeed="0.00" departDelay="0.00" arrival="39.00" arrivalLane="CE_2" arrivalPos="184.40" arrivalSpeed="13.89" duration="39.00" routeLength="462.30" waitingTime="0.00" waitingCount="0" stopTime="0.00" timeLoss="6.83" rerouteNo="1" devices="tripinfo_0 routing_0 emissions_0" vType="DEFAULT_VEHTYPE" speedFactor="1.06" vaporized="">
        <emissions CO_abs="2127.905867" CO2_abs="134273.117954" HC_abs="12.883463" PMx_abs="2.562863" NOx_abs="56.025742" fuel_abs="57.718043" electricity_abs="0"/>
    </tripinfo>
    <tripinfo id="6" depart="11.00" departLane="NN_2" departPos="5.10" departSpeed="0.00" departDelay="0.00" arrival="56.00" arrivalLane="CE_2" arrivalPos="184.40" arrivalSpeed="11.29" duration="45.00" routeLength="462.30" waitingTime="0.00" waitingCount="0" stopTime="0.00" timeLoss="5.45" rerouteNo="1" devices="tripinfo_6 routing_6 emissions_6" vType="DEFAULT_VEHTYPE" speedFactor="0.86" vaporized="">
        <emissions CO_abs="1668.384148" CO2_abs="110142.033326" HC_abs="10.149761" PMx_abs="1.749067" NOx_abs="43.771394" fuel_abs="47.345627" electricity_abs="0"/>
    </tripinfo>
    <tripinfo id="c5" depart="15.00" departLane="NC_1" departPos="1.70" departSpeed="0.00" departDelay="0.00" arrival="64.00" arrivalLane="CW_1" arrivalPos="181.40" arrivalSpeed="5.04" duration="49.00" routeLength="243.15" waitingTime="0.00" waitingCount="0" stopTime="0.00" timeLoss="5.21" rerouteNo="0" devices="tripinfo_c5 routing_c5 emissions_c5" vType="cyclist" speedFactor="1.01" vaporized="">
        <emissions CO_abs="0" CO2_abs="0" HC_abs="0" PMx_abs="0" NOx_abs="0" fuel_abs="0" electricity_abs="0"/>
    </tripinfo>
    <tripinfo id="3" depart="1.00" departLane="WW_2" departPos="5.10" departSpeed="0.00" departDelay="0.00" arrival="66.00" arrivalLane="CS_2" arrivalPos="184.40" arrivalSpeed="14.75" duration="65.00" routeLength="381.57" waitingTime="28.00" waitingCount="1" stopTime="0.00" timeLoss="38.62" rerouteNo="1" devices="tripinfo_3 routing_3 emissions_3" vType="DEFAULT_VEHTYPE" speedFactor="1.08" vaporized="">
        <emissions CO_abs="5914.206498" CO2_abs="188011.183315" HC_abs="31.327218" PMx_abs="3.868898" NOx_abs="80.419781" fuel_abs="80.819707" electricity_abs="0"/>
    </tripinfo>
    <tripinfo id="11" depart="32.00" departLane="EE_2" departPos="5.10" departSpeed="0.00" departDelay="0.00" arrival="67.00" arrivalLane="CN_2" arrivalPos="188.10" arrivalSpeed="12.50" duration="35.00" routeLength="388.27" waitingTime="0.00" waitingCount="0" stopTime="0.00" timeLoss="6.08" rerouteNo="1" devices="tripinfo_11 routing_11 emissions_11" vType="DEFAULT_VEHTYPE" speedFactor="0.99" vaporized="">
        <emissions CO_abs="1720.897316" CO2_abs="115519.651763" HC_abs="10.518689" PMx_abs="1.986958" NOx_abs="46.752833" fuel_abs="49.657000" electricity_abs="0"/>
    </tripinfo>
    <tripinfo id="9" depart="27.00" departLane="EE_2" departPos="5.10" departSpeed="0.00" departDelay="0.00" arrival="68.00" arrivalLane="CW_2" arrivalPos="181.40" arrivalSpeed="13.69" duration="41.00" routeLength="397.58" waitingTime="2.00" waitingCount="1" stopTime="0.00" timeLoss="13.18" rerouteNo="1" devices="tripinfo_9 routing_9 emissions_9" vType="DEFAULT_VEHTYPE" speedFactor="1.05" vaporized="">
        <emissions CO_abs="2073.238935" CO2_abs="123712.105031" HC_abs="12.346069" PMx_abs="2.222319" NOx_abs="50.718945" fuel_abs="53.178641" electricity_abs="0"/>
    </tripinfo>
    <personinfo id="3" depart="15.00" type="DEFAULT_PEDTYPE">
        <walk depart="15.00" departPos="0.00" arrival="71.00" arrivalPos="24.70" duration="56.00" routeLength="58.93" timeLoss="9.61" maxSpeed="1.27"/>
    </personinfo>
    <tripinfo id="14" depart="38.00" departLane="EE_2" departPos="5.10" departSpeed="0.00" departDelay="0.00" arrival="74.00" arrivalLane="CN_2" arrivalPos="188.10" arrivalSpeed="11.88" duration="36.00" routeLength="388.27" waitingTime="0.00" waitingCount="0" stopTime="0.00" timeLoss="5.16" rerouteNo="1" devices="tripinfo_14 routing_14 emissions_14" vType="DEFAULT_VEHTYPE" speedFactor="0.94" vaporized="">
        <emissions CO_abs="1619.417023" CO2_abs="106906.627386" HC_abs="9.872440" PMx_abs="1.817070" NOx_abs="43.188164" fuel_abs="45.954680" electricity_abs="0"/>
    </tripinfo>
    <tripinfo id="7" depart="25.00" departLane="WW_2" departPos="5.10" departSpeed="0.00" departDelay="0.00" arrival="76.00" arrivalLane="CN_2" arrivalPos="188.10" arrivalSpeed="15.03" duration="51.00" routeLength="398.90" waitingTime="9.00" waitingCount="3" stopTime="0.00" timeLoss="23.64" rerouteNo="1" devices="tripinfo_7 routing_7 emissions_7" vType="DEFAULT_VEHTYPE" speedFactor="1.09" vaporized="">
        <emissions CO_abs="3114.960270" CO2_abs="159860.612846" HC_abs="17.948017" PMx_abs="3.011973" NOx_abs="66.475004" fuel_abs="68.717522" electricity_abs="0"/>
    </tripinfo>
    <tripinfo id="c2" depart="10.00" departLane="WC_1" departPos="1.70" departSpeed="0.00" departDelay="0.00" arrival="81.00" arrivalLane="CS_1" arrivalPos="184.40" arrivalSpeed="5.55" duration="71.00" routeLength="246.15" waitingTime="17.00" waitingCount="1" stopTime="0.00" timeLoss="25.83" rerouteNo="0" devices="tripinfo_c2 routing_c2 emissions_c2" vType="cyclist" speedFactor="1.05" vaporized="">
        <emissions CO_abs="0" CO2_abs="0" HC_abs="0" PMx_abs="0" NOx_abs="0" fuel_abs="0" electricity_abs="0"/>
    </tripinfo>
    <tripinfo id="8" depart="28.00" departLane="WW_2" departPos="5.10" departSpeed="0.00" departDelay="1.00" arrival="84.00" arrivalLane="CS_2" arrivalPos="184.40" arrivalSpeed="13.79" duration="56.00" routeLength="381.57" waitingTime="13.00" waitingCount="2" stopTime="0.00" timeLoss="27.93" rerouteNo="1" devices="tripinfo_8 routing_8 emissions_8" vType="DEFAULT_VEHTYPE" speedFactor="1.03" vaporized="">
        <emissions CO_abs="3132.799381" CO2_abs="149285.233971" HC_abs="17.784880" PMx_abs="2.829763" NOx_abs="62.441735" fuel_abs="64.171742" electricity_abs="0"/>
    </tripinfo>
    <tripinfo id="12" depart="34.00" departLane="WW_2" departPos="5.10" departSpeed="0.00" departDelay="0.00" arrival="98.00" arrivalLane="CS_2" arrivalPos="184.40" arrivalSpeed="12.65" duration="64.00" routeLength="381.57" waitingTime="17.00" waitingCount="2" stopTime="0.00" timeLoss="33.64" rerouteNo="1" devices="tripinfo_12 routing_12 emissions_12" vType="DEFAULT_VEHTYPE" speedFactor="0.93" vaporized="">
        <emissions CO_abs="3905.779273" CO2_abs="148179.711766" HC_abs="21.266257" PMx_abs="2.885805" NOx_abs="62.663463" fuel_abs="63.697066" electricity_abs="0"/>
    </tripinfo>
    <tripinfo id="23" depart="54.00" departLane="WW_2" departPos="5.10" departSpeed="0.00" departDelay="0.00" arrival="98.00" arrivalLane="CE_2" arrivalPos="184.40" arrivalSpeed="12.07" duration="44.00" routeLength="397.58" waitingTime="4.00" waitingCount="1" stopTime="0.00" timeLoss="12.20" rerouteNo="1" devices="tripinfo_23 routing_23 emissions_23" vType="DEFAULT_VEHTYPE" speedFactor="0.92" vaporized="">
        <emissions CO_abs="1999.787078" CO2_abs="118284.283912" HC_abs="11.872399" PMx_abs="2.046647" NOx_abs="48.175370" fuel_abs="50.845565" electricity_abs="0"/>
    </tripinfo>
    <tripinfo id="24" depart="58.00" departLane="WW_2" departPos="5.10" departSpeed="0.00" departDelay="3.00" arrival="100.00" arrivalLane="CE_2" arrivalPos="184.40" arrivalSpeed="12.38" duration="42.00" routeLength="397.58" waitingTime="1.00" waitingCount="1" stopTime="0.00" timeLoss="11.02" rerouteNo="1" devices="tripinfo_24 routing_24 emissions_24" vType="DEFAULT_VEHTYPE" speedFactor="0.95" vaporized="">
        <emissions CO_abs="2073.203192" CO2_abs="120990.436894" HC_abs="12.281761" PMx_abs="2.159534" NOx_abs="49.712862" fuel_abs="52.008751" electricity_abs="0"/>
    </tripinfo>
    <personinfo id="0" depart="0.00" type="DEFAULT_PEDTYPE">
        <walk depart="0.00" departPos="0.00" arrival="102.00" arrivalPos="92.20" duration="102.00" routeLength="120.00" timeLoss="18.14" maxSpeed="1.43"/>
    </personinfo>
    <tripinfo id="5" depart="9.00" departLane="SS_2" departPos="5.10" departSpeed="0.00" departDelay="0.00" arrival="103.00" arrivalLane="CS_2" arrivalPos="184.40" arrivalSpeed="6.53" duration="94.00" routeLength="793.85" waitingTime="9.00" waitingCount="3" stopTime="0.00" timeLoss="30.41" rerouteNo="1" devices="tripinfo_5 routing_5 emissions_5" vType="DEFAULT_VEHTYPE" speedFactor="0.94" vaporized="">
        <emissions CO_abs="4233.327591" CO2_abs="240173.977088" HC_abs="24.912661" PMx_abs="4.303866" NOx_abs="98.906767" fuel_abs="103.240855" electricity_abs="0"/>
    </tripinfo>
    <personinfo id="6" depart="30.00" type="DEFAULT_PEDTYPE">
        <walk depart="30.00" departPos="0.00" arrival="104.00" arrivalPos="94.05" duration="74.00" routeLength="94.05" timeLoss="7.81" maxSpeed="1.42"/>
    </personinfo>
    <tripinfo id="1" depart="0.00" departLane="EE_2" departPos="5.10" departSpeed="0.00" departDelay="0.00" arrival="106.00" arrivalLane="CS_2" arrivalPos="184.40" arrivalSpeed="12.04" duration="106.00" routeLength="398.20" waitingTime="53.00" waitingCount="5" stopTime="0.00" timeLoss="74.43" rerouteNo="1" devices="tripinfo_1 routing_1 emissions_1" vType="DEFAULT_VEHTYPE" speedFactor="0.94" vaporized="">
        <emissions CO_abs="9064.576907" CO2_abs="236244.084506" HC_abs="46.810054" PMx_abs="4.973799" NOx_abs="102.219104" fuel_abs="101.554604" electricity_abs="0"/>
    </tripinfo>
    <tripinfo id="16" depart="44.00" departLane="NN_2" departPos="5.10" departSpeed="0.00" departDelay="0.00" arrival="106.00" arrivalLane="CW_2" arrivalPos="181.40" arrivalSpeed="14.84" duration="62.00" routeLength="445.67" waitingTime="23.00" waitingCount="1" stopTime="0.00" timeLoss="33.82" rerouteNo="1" devices="tripinfo_16 routing_16 emissions_16" vType="DEFAULT_VEHTYPE" speedFactor="1.16" vaporized="">
        <emissions CO_abs="5608.144008" CO2_abs="189303.260575" HC_abs="29.997822" PMx_abs="3.952960" NOx_abs="81.266156" fuel_abs="81.374754" electricity_abs="0"/>
    </tripinfo>
    <tripinfo id="2" depart="3.00" departLane="EE_2" departPos="5.10" departSpeed="0.00" departDelay="3.00" arrival="107.00" arrivalLane="CS_2" arrivalPos="184.40" arrivalSpeed="13.57" duration="104.00" routeLength="398.20" waitingTime="52.00" waitingCount="6" stopTime="0.00" timeLoss="75.24" rerouteNo="1" devices="tripinfo_2 routing_2 emissions_2" vType="DEFAULT_VEHTYPE" speedFactor="1.01" vaporized="">
        <emissions CO_abs="7915.153945" CO2_abs="224955.544751" HC_abs="41.340163" PMx_abs="4.763426" NOx_abs="97.572912" fuel_abs="96.701321" electricity_abs="0"/>
    </tripinfo>
    <personinfo id="16" depart="80.00" type="DEFAULT_PEDTYPE">
        <walk depart="80.00" departPos="0.00" arrival="109.00" arrivalPos="26.20" duration="29.00" routeLength="35.73" timeLoss="4.13" maxSpeed="1.44"/>
    </personinfo>
    <tripinfo id="10" depart="30.00" departLane="SS_2" departPos="5.10" departSpeed="0.00" departDelay="0.00" arrival="109.00" arrivalLane="CN_2" arrivalPos="188.10" arrivalSpeed="14.98" duration="79.00" routeLength="404.28" waitingTime="40.00" waitingCount="1" stopTime="0.00" timeLoss="52.70" rerouteNo="1" devices="tripinfo_10 routing_10 emissions_10" vType="DEFAULT_VEHTYPE" speedFactor="1.12" vaporized="">
        <emissions CO_abs="8095.306836" CO2_abs="223651.181338" HC_abs="42.099026" PMx_abs="4.806383" NOx_abs="97.006031" fuel_abs="96.140741" electricity_abs="0"/>
    </tripinfo>
</tripinfos>